Multilayered hBN 12x21x45

45360 atoms
2 atom types

-52.200000 52.200000 xlo xhi
-52.740947 52.740947 ylo yhi
-149.850000 149.850000 zlo zhi

Masses
1 10.810000
2 14.007000

Atoms
1 1 1 0.000000 -26.100000 -26.370474 -73.260000
2 1 2 0.000000 -26.100000 -25.951895 -73.260000
3 1 1 0.000000 -26.100000 -25.114737 -73.260000
4 1 2 0.000000 -26.100000 -24.696158 -73.260000
5 1 1 0.000000 -21.750000 -26.370474 -73.260000
6 1 2 0.000000 -21.750000 -25.951895 -73.260000
7 1 1 0.000000 -21.750000 -25.114737 -73.260000
8 1 2 0.000000 -21.750000 -24.696158 -73.260000
9 1 1 0.000000 -17.400000 -26.370474 -73.260000
10 1 2 0.000000 -17.400000 -25.951895 -73.260000
11 1 1 0.000000 -17.400000 -25.114737 -73.260000
12 1 2 0.000000 -17.400000 -24.696158 -73.260000
13 1 1 0.000000 -13.050000 -26.370474 -73.260000
14 1 2 0.000000 -13.050000 -25.951895 -73.260000
15 1 1 0.000000 -13.050000 -25.114737 -73.260000
16 1 2 0.000000 -13.050000 -24.696158 -73.260000
17 1 1 0.000000 -8.700000 -26.370474 -73.260000
18 1 2 0.000000 -8.700000 -25.951895 -73.260000
19 1 1 0.000000 -8.700000 -25.114737 -73.260000
20 1 2 0.000000 -8.700000 -24.696158 -73.260000
21 1 1 0.000000 -4.350000 -26.370474 -73.260000
22 1 2 0.000000 -4.350000 -25.951895 -73.260000
23 1 1 0.000000 -4.350000 -25.114737 -73.260000
24 1 2 0.000000 -4.350000 -24.696158 -73.260000
25 1 1 0.000000 0.000000 -26.370474 -73.260000
26 1 2 0.000000 0.000000 -25.951895 -73.260000
27 1 1 0.000000 0.000000 -25.114737 -73.260000
28 1 2 0.000000 0.000000 -24.696158 -73.260000
29 1 1 0.000000 4.350000 -26.370474 -73.260000
30 1 2 0.000000 4.350000 -25.951895 -73.260000
31 1 1 0.000000 4.350000 -25.114737 -73.260000
32 1 2 0.000000 4.350000 -24.696158 -73.260000
33 1 1 0.000000 8.700000 -26.370474 -73.260000
34 1 2 0.000000 8.700000 -25.951895 -73.260000
35 1 1 0.000000 8.700000 -25.114737 -73.260000
36 1 2 0.000000 8.700000 -24.696158 -73.260000
37 1 1 0.000000 13.050000 -26.370474 -73.260000
38 1 2 0.000000 13.050000 -25.951895 -73.260000
39 1 1 0.000000 13.050000 -25.114737 -73.260000
40 1 2 0.000000 13.050000 -24.696158 -73.260000
41 1 1 0.000000 17.400000 -26.370474 -73.260000
42 1 2 0.000000 17.400000 -25.951895 -73.260000
43 1 1 0.000000 17.400000 -25.114737 -73.260000
44 1 2 0.000000 17.400000 -24.696158 -73.260000
45 1 1 0.000000 21.750000 -26.370474 -73.260000
46 1 2 0.000000 21.750000 -25.951895 -73.260000
47 1 1 0.000000 21.750000 -25.114737 -73.260000
48 1 2 0.000000 21.750000 -24.696158 -73.260000
49 1 1 0.000000 -26.100000 -23.859000 -73.260000
50 1 2 0.000000 -26.100000 -23.440421 -73.260000
51 1 1 0.000000 -26.100000 -22.603263 -73.260000
52 1 2 0.000000 -26.100000 -22.184684 -73.260000
53 1 1 0.000000 -21.750000 -23.859000 -73.260000
54 1 2 0.000000 -21.750000 -23.440421 -73.260000
55 1 1 0.000000 -21.750000 -22.603263 -73.260000
56 1 2 0.000000 -21.750000 -22.184684 -73.260000
57 1 1 0.000000 -17.400000 -23.859000 -73.260000
58 1 2 0.000000 -17.400000 -23.440421 -73.260000
59 1 1 0.000000 -17.400000 -22.603263 -73.260000
60 1 2 0.000000 -17.400000 -22.184684 -73.260000
61 1 1 0.000000 -13.050000 -23.859000 -73.260000
62 1 2 0.000000 -13.050000 -23.440421 -73.260000
63 1 1 0.000000 -13.050000 -22.603263 -73.260000
64 1 2 0.000000 -13.050000 -22.184684 -73.260000
65 1 1 0.000000 -8.700000 -23.859000 -73.260000
66 1 2 0.000000 -8.700000 -23.440421 -73.260000
67 1 1 0.000000 -8.700000 -22.603263 -73.260000
68 1 2 0.000000 -8.700000 -22.184684 -73.260000
69 1 1 0.000000 -4.350000 -23.859000 -73.260000
70 1 2 0.000000 -4.350000 -23.440421 -73.260000
71 1 1 0.000000 -4.350000 -22.603263 -73.260000
72 1 2 0.000000 -4.350000 -22.184684 -73.260000
73 1 1 0.000000 0.000000 -23.859000 -73.260000
74 1 2 0.000000 0.000000 -23.440421 -73.260000
75 1 1 0.000000 0.000000 -22.603263 -73.260000
76 1 2 0.000000 0.000000 -22.184684 -73.260000
77 1 1 0.000000 4.350000 -23.859000 -73.260000
78 1 2 0.000000 4.350000 -23.440421 -73.260000
79 1 1 0.000000 4.350000 -22.603263 -73.260000
80 1 2 0.000000 4.350000 -22.184684 -73.260000
81 1 1 0.000000 8.700000 -23.859000 -73.260000
82 1 2 0.000000 8.700000 -23.440421 -73.260000
83 1 1 0.000000 8.700000 -22.603263 -73.260000
84 1 2 0.000000 8.700000 -22.184684 -73.260000
85 1 1 0.000000 13.050000 -23.859000 -73.260000
86 1 2 0.000000 13.050000 -23.440421 -73.260000
87 1 1 0.000000 13.050000 -22.603263 -73.260000
88 1 2 0.000000 13.050000 -22.184684 -73.260000
89 1 1 0.000000 17.400000 -23.859000 -73.260000
90 1 2 0.000000 17.400000 -23.440421 -73.260000
91 1 1 0.000000 17.400000 -22.603263 -73.260000
92 1 2 0.000000 17.400000 -22.184684 -73.260000
93 1 1 0.000000 21.750000 -23.859000 -73.260000
94 1 2 0.000000 21.750000 -23.440421 -73.260000
95 1 1 0.000000 21.750000 -22.603263 -73.260000
96 1 2 0.000000 21.750000 -22.184684 -73.260000
97 1 1 0.000000 -26.100000 -21.347526 -73.260000
98 1 2 0.000000 -26.100000 -20.928947 -73.260000
99 1 1 0.000000 -26.100000 -20.091789 -73.260000
100 1 2 0.000000 -26.100000 -19.673210 -73.260000
101 1 1 0.000000 -21.750000 -21.347526 -73.260000
102 1 2 0.000000 -21.750000 -20.928947 -73.260000
103 1 1 0.000000 -21.750000 -20.091789 -73.260000
104 1 2 0.000000 -21.750000 -19.673210 -73.260000
105 1 1 0.000000 -17.400000 -21.347526 -73.260000
106 1 2 0.000000 -17.400000 -20.928947 -73.260000
107 1 1 0.000000 -17.400000 -20.091789 -73.260000
108 1 2 0.000000 -17.400000 -19.673210 -73.260000
109 1 1 0.000000 -13.050000 -21.347526 -73.260000
110 1 2 0.000000 -13.050000 -20.928947 -73.260000
111 1 1 0.000000 -13.050000 -20.091789 -73.260000
112 1 2 0.000000 -13.050000 -19.673210 -73.260000
113 1 1 0.000000 -8.700000 -21.347526 -73.260000
114 1 2 0.000000 -8.700000 -20.928947 -73.260000
115 1 1 0.000000 -8.700000 -20.091789 -73.260000
116 1 2 0.000000 -8.700000 -19.673210 -73.260000
117 1 1 0.000000 -4.350000 -21.347526 -73.260000
118 1 2 0.000000 -4.350000 -20.928947 -73.260000
119 1 1 0.000000 -4.350000 -20.091789 -73.260000
120 1 2 0.000000 -4.350000 -19.673210 -73.260000
121 1 1 0.000000 0.000000 -21.347526 -73.260000
122 1 2 0.000000 0.000000 -20.928947 -73.260000
123 1 1 0.000000 0.000000 -20.091789 -73.260000
124 1 2 0.000000 0.000000 -19.673210 -73.260000
125 1 1 0.000000 4.350000 -21.347526 -73.260000
126 1 2 0.000000 4.350000 -20.928947 -73.260000
127 1 1 0.000000 4.350000 -20.091789 -73.260000
128 1 2 0.000000 4.350000 -19.673210 -73.260000
129 1 1 0.000000 8.700000 -21.347526 -73.260000
130 1 2 0.000000 8.700000 -20.928947 -73.260000
131 1 1 0.000000 8.700000 -20.091789 -73.260000
132 1 2 0.000000 8.700000 -19.673210 -73.260000
133 1 1 0.000000 13.050000 -21.347526 -73.260000
134 1 2 0.000000 13.050000 -20.928947 -73.260000
135 1 1 0.000000 13.050000 -20.091789 -73.260000
136 1 2 0.000000 13.050000 -19.673210 -73.260000
137 1 1 0.000000 17.400000 -21.347526 -73.260000
138 1 2 0.000000 17.400000 -20.928947 -73.260000
139 1 1 0.000000 17.400000 -20.091789 -73.260000
140 1 2 0.000000 17.400000 -19.673210 -73.260000
141 1 1 0.000000 21.750000 -21.347526 -73.260000
142 1 2 0.000000 21.750000 -20.928947 -73.260000
143 1 1 0.000000 21.750000 -20.091789 -73.260000
144 1 2 0.000000 21.750000 -19.673210 -73.260000
145 1 1 0.000000 -26.100000 -18.836053 -73.260000
146 1 2 0.000000 -26.100000 -18.417474 -73.260000
147 1 1 0.000000 -26.100000 -17.580316 -73.260000
148 1 2 0.000000 -26.100000 -17.161737 -73.260000
149 1 1 0.000000 -21.750000 -18.836053 -73.260000
150 1 2 0.000000 -21.750000 -18.417474 -73.260000
151 1 1 0.000000 -21.750000 -17.580316 -73.260000
152 1 2 0.000000 -21.750000 -17.161737 -73.260000
153 1 1 0.000000 -17.400000 -18.836053 -73.260000
154 1 2 0.000000 -17.400000 -18.417474 -73.260000
155 1 1 0.000000 -17.400000 -17.580316 -73.260000
156 1 2 0.000000 -17.400000 -17.161737 -73.260000
157 1 1 0.000000 -13.050000 -18.836053 -73.260000
158 1 2 0.000000 -13.050000 -18.417474 -73.260000
159 1 1 0.000000 -13.050000 -17.580316 -73.260000
160 1 2 0.000000 -13.050000 -17.161737 -73.260000
161 1 1 0.000000 -8.700000 -18.836053 -73.260000
162 1 2 0.000000 -8.700000 -18.417474 -73.260000
163 1 1 0.000000 -8.700000 -17.580316 -73.260000
164 1 2 0.000000 -8.700000 -17.161737 -73.260000
165 1 1 0.000000 -4.350000 -18.836053 -73.260000
166 1 2 0.000000 -4.350000 -18.417474 -73.260000
167 1 1 0.000000 -4.350000 -17.580316 -73.260000
168 1 2 0.000000 -4.350000 -17.161737 -73.260000
169 1 1 0.000000 0.000000 -18.836053 -73.260000
170 1 2 0.000000 0.000000 -18.417474 -73.260000
171 1 1 0.000000 0.000000 -17.580316 -73.260000
172 1 2 0.000000 0.000000 -17.161737 -73.260000
173 1 1 0.000000 4.350000 -18.836053 -73.260000
174 1 2 0.000000 4.350000 -18.417474 -73.260000
175 1 1 0.000000 4.350000 -17.580316 -73.260000
176 1 2 0.000000 4.350000 -17.161737 -73.260000
177 1 1 0.000000 8.700000 -18.836053 -73.260000
178 1 2 0.000000 8.700000 -18.417474 -73.260000
179 1 1 0.000000 8.700000 -17.580316 -73.260000
180 1 2 0.000000 8.700000 -17.161737 -73.260000
181 1 1 0.000000 13.050000 -18.836053 -73.260000
182 1 2 0.000000 13.050000 -18.417474 -73.260000
183 1 1 0.000000 13.050000 -17.580316 -73.260000
184 1 2 0.000000 13.050000 -17.161737 -73.260000
185 1 1 0.000000 17.400000 -18.836053 -73.260000
186 1 2 0.000000 17.400000 -18.417474 -73.260000
187 1 1 0.000000 17.400000 -17.580316 -73.260000
188 1 2 0.000000 17.400000 -17.161737 -73.260000
189 1 1 0.000000 21.750000 -18.836053 -73.260000
190 1 2 0.000000 21.750000 -18.417474 -73.260000
191 1 1 0.000000 21.750000 -17.580316 -73.260000
192 1 2 0.000000 21.750000 -17.161737 -73.260000
193 1 1 0.000000 -26.100000 -16.324579 -73.260000
194 1 2 0.000000 -26.100000 -15.906000 -73.260000
195 1 1 0.000000 -26.100000 -15.068842 -73.260000
196 1 2 0.000000 -26.100000 -14.650263 -73.260000
197 1 1 0.000000 -21.750000 -16.324579 -73.260000
198 1 2 0.000000 -21.750000 -15.906000 -73.260000
199 1 1 0.000000 -21.750000 -15.068842 -73.260000
200 1 2 0.000000 -21.750000 -14.650263 -73.260000
201 1 1 0.000000 -17.400000 -16.324579 -73.260000
202 1 2 0.000000 -17.400000 -15.906000 -73.260000
203 1 1 0.000000 -17.400000 -15.068842 -73.260000
204 1 2 0.000000 -17.400000 -14.650263 -73.260000
205 1 1 0.000000 -13.050000 -16.324579 -73.260000
206 1 2 0.000000 -13.050000 -15.906000 -73.260000
207 1 1 0.000000 -13.050000 -15.068842 -73.260000
208 1 2 0.000000 -13.050000 -14.650263 -73.260000
209 1 1 0.000000 -8.700000 -16.324579 -73.260000
210 1 2 0.000000 -8.700000 -15.906000 -73.260000
211 1 1 0.000000 -8.700000 -15.068842 -73.260000
212 1 2 0.000000 -8.700000 -14.650263 -73.260000
213 1 1 0.000000 -4.350000 -16.324579 -73.260000
214 1 2 0.000000 -4.350000 -15.906000 -73.260000
215 1 1 0.000000 -4.350000 -15.068842 -73.260000
216 1 2 0.000000 -4.350000 -14.650263 -73.260000
217 1 1 0.000000 0.000000 -16.324579 -73.260000
218 1 2 0.000000 0.000000 -15.906000 -73.260000
219 1 1 0.000000 0.000000 -15.068842 -73.260000
220 1 2 0.000000 0.000000 -14.650263 -73.260000
221 1 1 0.000000 4.350000 -16.324579 -73.260000
222 1 2 0.000000 4.350000 -15.906000 -73.260000
223 1 1 0.000000 4.350000 -15.068842 -73.260000
224 1 2 0.000000 4.350000 -14.650263 -73.260000
225 1 1 0.000000 8.700000 -16.324579 -73.260000
226 1 2 0.000000 8.700000 -15.906000 -73.260000
227 1 1 0.000000 8.700000 -15.068842 -73.260000
228 1 2 0.000000 8.700000 -14.650263 -73.260000
229 1 1 0.000000 13.050000 -16.324579 -73.260000
230 1 2 0.000000 13.050000 -15.906000 -73.260000
231 1 1 0.000000 13.050000 -15.068842 -73.260000
232 1 2 0.000000 13.050000 -14.650263 -73.260000
233 1 1 0.000000 17.400000 -16.324579 -73.260000
234 1 2 0.000000 17.400000 -15.906000 -73.260000
235 1 1 0.000000 17.400000 -15.068842 -73.260000
236 1 2 0.000000 17.400000 -14.650263 -73.260000
237 1 1 0.000000 21.750000 -16.324579 -73.260000
238 1 2 0.000000 21.750000 -15.906000 -73.260000
239 1 1 0.000000 21.750000 -15.068842 -73.260000
240 1 2 0.000000 21.750000 -14.650263 -73.260000
241 1 1 0.000000 -26.100000 -13.813105 -73.260000
242 1 2 0.000000 -26.100000 -13.394526 -73.260000
243 1 1 0.000000 -26.100000 -12.557368 -73.260000
244 1 2 0.000000 -26.100000 -12.138789 -73.260000
245 1 1 0.000000 -21.750000 -13.813105 -73.260000
246 1 2 0.000000 -21.750000 -13.394526 -73.260000
247 1 1 0.000000 -21.750000 -12.557368 -73.260000
248 1 2 0.000000 -21.750000 -12.138789 -73.260000
249 1 1 0.000000 -17.400000 -13.813105 -73.260000
250 1 2 0.000000 -17.400000 -13.394526 -73.260000
251 1 1 0.000000 -17.400000 -12.557368 -73.260000
252 1 2 0.000000 -17.400000 -12.138789 -73.260000
253 1 1 0.000000 -13.050000 -13.813105 -73.260000
254 1 2 0.000000 -13.050000 -13.394526 -73.260000
255 1 1 0.000000 -13.050000 -12.557368 -73.260000
256 1 2 0.000000 -13.050000 -12.138789 -73.260000
257 1 1 0.000000 -8.700000 -13.813105 -73.260000
258 1 2 0.000000 -8.700000 -13.394526 -73.260000
259 1 1 0.000000 -8.700000 -12.557368 -73.260000
260 1 2 0.000000 -8.700000 -12.138789 -73.260000
261 1 1 0.000000 -4.350000 -13.813105 -73.260000
262 1 2 0.000000 -4.350000 -13.394526 -73.260000
263 1 1 0.000000 -4.350000 -12.557368 -73.260000
264 1 2 0.000000 -4.350000 -12.138789 -73.260000
265 1 1 0.000000 0.000000 -13.813105 -73.260000
266 1 2 0.000000 0.000000 -13.394526 -73.260000
267 1 1 0.000000 0.000000 -12.557368 -73.260000
268 1 2 0.000000 0.000000 -12.138789 -73.260000
269 1 1 0.000000 4.350000 -13.813105 -73.260000
270 1 2 0.000000 4.350000 -13.394526 -73.260000
271 1 1 0.000000 4.350000 -12.557368 -73.260000
272 1 2 0.000000 4.350000 -12.138789 -73.260000
273 1 1 0.000000 8.700000 -13.813105 -73.260000
274 1 2 0.000000 8.700000 -13.394526 -73.260000
275 1 1 0.000000 8.700000 -12.557368 -73.260000
276 1 2 0.000000 8.700000 -12.138789 -73.260000
277 1 1 0.000000 13.050000 -13.813105 -73.260000
278 1 2 0.000000 13.050000 -13.394526 -73.260000
279 1 1 0.000000 13.050000 -12.557368 -73.260000
280 1 2 0.000000 13.050000 -12.138789 -73.260000
281 1 1 0.000000 17.400000 -13.813105 -73.260000
282 1 2 0.000000 17.400000 -13.394526 -73.260000
283 1 1 0.000000 17.400000 -12.557368 -73.260000
284 1 2 0.000000 17.400000 -12.138789 -73.260000
285 1 1 0.000000 21.750000 -13.813105 -73.260000
286 1 2 0.000000 21.750000 -13.394526 -73.260000
287 1 1 0.000000 21.750000 -12.557368 -73.260000
288 1 2 0.000000 21.750000 -12.138789 -73.260000
289 1 1 0.000000 -26.100000 -11.301632 -73.260000
290 1 2 0.000000 -26.100000 -10.883053 -73.260000
291 1 1 0.000000 -26.100000 -10.045895 -73.260000
292 1 2 0.000000 -26.100000 -9.627316 -73.260000
293 1 1 0.000000 -21.750000 -11.301632 -73.260000
294 1 2 0.000000 -21.750000 -10.883053 -73.260000
295 1 1 0.000000 -21.750000 -10.045895 -73.260000
296 1 2 0.000000 -21.750000 -9.627316 -73.260000
297 1 1 0.000000 -17.400000 -11.301632 -73.260000
298 1 2 0.000000 -17.400000 -10.883053 -73.260000
299 1 1 0.000000 -17.400000 -10.045895 -73.260000
300 1 2 0.000000 -17.400000 -9.627316 -73.260000
301 1 1 0.000000 -13.050000 -11.301632 -73.260000
302 1 2 0.000000 -13.050000 -10.883053 -73.260000
303 1 1 0.000000 -13.050000 -10.045895 -73.260000
304 1 2 0.000000 -13.050000 -9.627316 -73.260000
305 1 1 0.000000 -8.700000 -11.301632 -73.260000
306 1 2 0.000000 -8.700000 -10.883053 -73.260000
307 1 1 0.000000 -8.700000 -10.045895 -73.260000
308 1 2 0.000000 -8.700000 -9.627316 -73.260000
309 1 1 0.000000 -4.350000 -11.301632 -73.260000
310 1 2 0.000000 -4.350000 -10.883053 -73.260000
311 1 1 0.000000 -4.350000 -10.045895 -73.260000
312 1 2 0.000000 -4.350000 -9.627316 -73.260000
313 1 1 0.000000 0.000000 -11.301632 -73.260000
314 1 2 0.000000 0.000000 -10.883053 -73.260000
315 1 1 0.000000 0.000000 -10.045895 -73.260000
316 1 2 0.000000 0.000000 -9.627316 -73.260000
317 1 1 0.000000 4.350000 -11.301632 -73.260000
318 1 2 0.000000 4.350000 -10.883053 -73.260000
319 1 1 0.000000 4.350000 -10.045895 -73.260000
320 1 2 0.000000 4.350000 -9.627316 -73.260000
321 1 1 0.000000 8.700000 -11.301632 -73.260000
322 1 2 0.000000 8.700000 -10.883053 -73.260000
323 1 1 0.000000 8.700000 -10.045895 -73.260000
324 1 2 0.000000 8.700000 -9.627316 -73.260000
325 1 1 0.000000 13.050000 -11.301632 -73.260000
326 1 2 0.000000 13.050000 -10.883053 -73.260000
327 1 1 0.000000 13.050000 -10.045895 -73.260000
328 1 2 0.000000 13.050000 -9.627316 -73.260000
329 1 1 0.000000 17.400000 -11.301632 -73.260000
330 1 2 0.000000 17.400000 -10.883053 -73.260000
331 1 1 0.000000 17.400000 -10.045895 -73.260000
332 1 2 0.000000 17.400000 -9.627316 -73.260000
333 1 1 0.000000 21.750000 -11.301632 -73.260000
334 1 2 0.000000 21.750000 -10.883053 -73.260000
335 1 1 0.000000 21.750000 -10.045895 -73.260000
336 1 2 0.000000 21.750000 -9.627316 -73.260000
337 1 1 0.000000 -26.100000 -8.790158 -73.260000
338 1 2 0.000000 -26.100000 -8.371579 -73.260000
339 1 1 0.000000 -26.100000 -7.534421 -73.260000
340 1 2 0.000000 -26.100000 -7.115842 -73.260000
341 1 1 0.000000 -21.750000 -8.790158 -73.260000
342 1 2 0.000000 -21.750000 -8.371579 -73.260000
343 1 1 0.000000 -21.750000 -7.534421 -73.260000
344 1 2 0.000000 -21.750000 -7.115842 -73.260000
345 1 1 0.000000 -17.400000 -8.790158 -73.260000
346 1 2 0.000000 -17.400000 -8.371579 -73.260000
347 1 1 0.000000 -17.400000 -7.534421 -73.260000
348 1 2 0.000000 -17.400000 -7.115842 -73.260000
349 1 1 0.000000 -13.050000 -8.790158 -73.260000
350 1 2 0.000000 -13.050000 -8.371579 -73.260000
351 1 1 0.000000 -13.050000 -7.534421 -73.260000
352 1 2 0.000000 -13.050000 -7.115842 -73.260000
353 1 1 0.000000 -8.700000 -8.790158 -73.260000
354 1 2 0.000000 -8.700000 -8.371579 -73.260000
355 1 1 0.000000 -8.700000 -7.534421 -73.260000
356 1 2 0.000000 -8.700000 -7.115842 -73.260000
357 1 1 0.000000 -4.350000 -8.790158 -73.260000
358 1 2 0.000000 -4.350000 -8.371579 -73.260000
359 1 1 0.000000 -4.350000 -7.534421 -73.260000
360 1 2 0.000000 -4.350000 -7.115842 -73.260000
361 1 1 0.000000 0.000000 -8.790158 -73.260000
362 1 2 0.000000 0.000000 -8.371579 -73.260000
363 1 1 0.000000 0.000000 -7.534421 -73.260000
364 1 2 0.000000 0.000000 -7.115842 -73.260000
365 1 1 0.000000 4.350000 -8.790158 -73.260000
366 1 2 0.000000 4.350000 -8.371579 -73.260000
367 1 1 0.000000 4.350000 -7.534421 -73.260000
368 1 2 0.000000 4.350000 -7.115842 -73.260000
369 1 1 0.000000 8.700000 -8.790158 -73.260000
370 1 2 0.000000 8.700000 -8.371579 -73.260000
371 1 1 0.000000 8.700000 -7.534421 -73.260000
372 1 2 0.000000 8.700000 -7.115842 -73.260000
373 1 1 0.000000 13.050000 -8.790158 -73.260000
374 1 2 0.000000 13.050000 -8.371579 -73.260000
375 1 1 0.000000 13.050000 -7.534421 -73.260000
376 1 2 0.000000 13.050000 -7.115842 -73.260000
377 1 1 0.000000 17.400000 -8.790158 -73.260000
378 1 2 0.000000 17.400000 -8.371579 -73.260000
379 1 1 0.000000 17.400000 -7.534421 -73.260000
380 1 2 0.000000 17.400000 -7.115842 -73.260000
381 1 1 0.000000 21.750000 -8.790158 -73.260000
382 1 2 0.000000 21.750000 -8.371579 -73.260000
383 1 1 0.000000 21.750000 -7.534421 -73.260000
384 1 2 0.000000 21.750000 -7.115842 -73.260000
385 1 1 0.000000 -26.100000 -6.278684 -73.260000
386 1 2 0.000000 -26.100000 -5.860105 -73.260000
387 1 1 0.000000 -26.100000 -5.022947 -73.260000
388 1 2 0.000000 -26.100000 -4.604368 -73.260000
389 1 1 0.000000 -21.750000 -6.278684 -73.260000
390 1 2 0.000000 -21.750000 -5.860105 -73.260000
391 1 1 0.000000 -21.750000 -5.022947 -73.260000
392 1 2 0.000000 -21.750000 -4.604368 -73.260000
393 1 1 0.000000 -17.400000 -6.278684 -73.260000
394 1 2 0.000000 -17.400000 -5.860105 -73.260000
395 1 1 0.000000 -17.400000 -5.022947 -73.260000
396 1 2 0.000000 -17.400000 -4.604368 -73.260000
397 1 1 0.000000 -13.050000 -6.278684 -73.260000
398 1 2 0.000000 -13.050000 -5.860105 -73.260000
399 1 1 0.000000 -13.050000 -5.022947 -73.260000
400 1 2 0.000000 -13.050000 -4.604368 -73.260000
401 1 1 0.000000 -8.700000 -6.278684 -73.260000
402 1 2 0.000000 -8.700000 -5.860105 -73.260000
403 1 1 0.000000 -8.700000 -5.022947 -73.260000
404 1 2 0.000000 -8.700000 -4.604368 -73.260000
405 1 1 0.000000 -4.350000 -6.278684 -73.260000
406 1 2 0.000000 -4.350000 -5.860105 -73.260000
407 1 1 0.000000 -4.350000 -5.022947 -73.260000
408 1 2 0.000000 -4.350000 -4.604368 -73.260000
409 1 1 0.000000 0.000000 -6.278684 -73.260000
410 1 2 0.000000 0.000000 -5.860105 -73.260000
411 1 1 0.000000 0.000000 -5.022947 -73.260000
412 1 2 0.000000 0.000000 -4.604368 -73.260000
413 1 1 0.000000 4.350000 -6.278684 -73.260000
414 1 2 0.000000 4.350000 -5.860105 -73.260000
415 1 1 0.000000 4.350000 -5.022947 -73.260000
416 1 2 0.000000 4.350000 -4.604368 -73.260000
417 1 1 0.000000 8.700000 -6.278684 -73.260000
418 1 2 0.000000 8.700000 -5.860105 -73.260000
419 1 1 0.000000 8.700000 -5.022947 -73.260000
420 1 2 0.000000 8.700000 -4.604368 -73.260000
421 1 1 0.000000 13.050000 -6.278684 -73.260000
422 1 2 0.000000 13.050000 -5.860105 -73.260000
423 1 1 0.000000 13.050000 -5.022947 -73.260000
424 1 2 0.000000 13.050000 -4.604368 -73.260000
425 1 1 0.000000 17.400000 -6.278684 -73.260000
426 1 2 0.000000 17.400000 -5.860105 -73.260000
427 1 1 0.000000 17.400000 -5.022947 -73.260000
428 1 2 0.000000 17.400000 -4.604368 -73.260000
429 1 1 0.000000 21.750000 -6.278684 -73.260000
430 1 2 0.000000 21.750000 -5.860105 -73.260000
431 1 1 0.000000 21.750000 -5.022947 -73.260000
432 1 2 0.000000 21.750000 -4.604368 -73.260000
433 1 1 0.000000 -26.100000 -3.767211 -73.260000
434 1 2 0.000000 -26.100000 -3.348632 -73.260000
435 1 1 0.000000 -26.100000 -2.511474 -73.260000
436 1 2 0.000000 -26.100000 -2.092895 -73.260000
437 1 1 0.000000 -21.750000 -3.767211 -73.260000
438 1 2 0.000000 -21.750000 -3.348632 -73.260000
439 1 1 0.000000 -21.750000 -2.511474 -73.260000
440 1 2 0.000000 -21.750000 -2.092895 -73.260000
441 1 1 0.000000 -17.400000 -3.767211 -73.260000
442 1 2 0.000000 -17.400000 -3.348632 -73.260000
443 1 1 0.000000 -17.400000 -2.511474 -73.260000
444 1 2 0.000000 -17.400000 -2.092895 -73.260000
445 1 1 0.000000 -13.050000 -3.767211 -73.260000
446 1 2 0.000000 -13.050000 -3.348632 -73.260000
447 1 1 0.000000 -13.050000 -2.511474 -73.260000
448 1 2 0.000000 -13.050000 -2.092895 -73.260000
449 1 1 0.000000 -8.700000 -3.767211 -73.260000
450 1 2 0.000000 -8.700000 -3.348632 -73.260000
451 1 1 0.000000 -8.700000 -2.511474 -73.260000
452 1 2 0.000000 -8.700000 -2.092895 -73.260000
453 1 1 0.000000 -4.350000 -3.767211 -73.260000
454 1 2 0.000000 -4.350000 -3.348632 -73.260000
455 1 1 0.000000 -4.350000 -2.511474 -73.260000
456 1 2 0.000000 -4.350000 -2.092895 -73.260000
457 1 1 0.000000 0.000000 -3.767211 -73.260000
458 1 2 0.000000 0.000000 -3.348632 -73.260000
459 1 1 0.000000 0.000000 -2.511474 -73.260000
460 1 2 0.000000 0.000000 -2.092895 -73.260000
461 1 1 0.000000 4.350000 -3.767211 -73.260000
462 1 2 0.000000 4.350000 -3.348632 -73.260000
463 1 1 0.000000 4.350000 -2.511474 -73.260000
464 1 2 0.000000 4.350000 -2.092895 -73.260000
465 1 1 0.000000 8.700000 -3.767211 -73.260000
466 1 2 0.000000 8.700000 -3.348632 -73.260000
467 1 1 0.000000 8.700000 -2.511474 -73.260000
468 1 2 0.000000 8.700000 -2.092895 -73.260000
469 1 1 0.000000 13.050000 -3.767211 -73.260000
470 1 2 0.000000 13.050000 -3.348632 -73.260000
471 1 1 0.000000 13.050000 -2.511474 -73.260000
472 1 2 0.000000 13.050000 -2.092895 -73.260000
473 1 1 0.000000 17.400000 -3.767211 -73.260000
474 1 2 0.000000 17.400000 -3.348632 -73.260000
475 1 1 0.000000 17.400000 -2.511474 -73.260000
476 1 2 0.000000 17.400000 -2.092895 -73.260000
477 1 1 0.000000 21.750000 -3.767211 -73.260000
478 1 2 0.000000 21.750000 -3.348632 -73.260000
479 1 1 0.000000 21.750000 -2.511474 -73.260000
480 1 2 0.000000 21.750000 -2.092895 -73.260000
481 1 1 0.000000 -26.100000 -1.255737 -73.260000
482 1 2 0.000000 -26.100000 -0.837158 -73.260000
483 1 1 0.000000 -26.100000 0.000000 -73.260000
484 1 2 0.000000 -26.100000 0.418579 -73.260000
485 1 1 0.000000 -21.750000 -1.255737 -73.260000
486 1 2 0.000000 -21.750000 -0.837158 -73.260000
487 1 1 0.000000 -21.750000 0.000000 -73.260000
488 1 2 0.000000 -21.750000 0.418579 -73.260000
489 1 1 0.000000 -17.400000 -1.255737 -73.260000
490 1 2 0.000000 -17.400000 -0.837158 -73.260000
491 1 1 0.000000 -17.400000 0.000000 -73.260000
492 1 2 0.000000 -17.400000 0.418579 -73.260000
493 1 1 0.000000 -13.050000 -1.255737 -73.260000
494 1 2 0.000000 -13.050000 -0.837158 -73.260000
495 1 1 0.000000 -13.050000 0.000000 -73.260000
496 1 2 0.000000 -13.050000 0.418579 -73.260000
497 1 1 0.000000 -8.700000 -1.255737 -73.260000
498 1 2 0.000000 -8.700000 -0.837158 -73.260000
499 1 1 0.000000 -8.700000 0.000000 -73.260000
500 1 2 0.000000 -8.700000 0.418579 -73.260000
501 1 1 0.000000 -4.350000 -1.255737 -73.260000
502 1 2 0.000000 -4.350000 -0.837158 -73.260000
503 1 1 0.000000 -4.350000 0.000000 -73.260000
504 1 2 0.000000 -4.350000 0.418579 -73.260000
505 1 1 0.000000 0.000000 -1.255737 -73.260000
506 1 2 0.000000 0.000000 -0.837158 -73.260000
507 1 1 0.000000 0.000000 0.000000 -73.260000
508 1 2 0.000000 0.000000 0.418579 -73.260000
509 1 1 0.000000 4.350000 -1.255737 -73.260000
510 1 2 0.000000 4.350000 -0.837158 -73.260000
511 1 1 0.000000 4.350000 0.000000 -73.260000
512 1 2 0.000000 4.350000 0.418579 -73.260000
513 1 1 0.000000 8.700000 -1.255737 -73.260000
514 1 2 0.000000 8.700000 -0.837158 -73.260000
515 1 1 0.000000 8.700000 0.000000 -73.260000
516 1 2 0.000000 8.700000 0.418579 -73.260000
517 1 1 0.000000 13.050000 -1.255737 -73.260000
518 1 2 0.000000 13.050000 -0.837158 -73.260000
519 1 1 0.000000 13.050000 0.000000 -73.260000
520 1 2 0.000000 13.050000 0.418579 -73.260000
521 1 1 0.000000 17.400000 -1.255737 -73.260000
522 1 2 0.000000 17.400000 -0.837158 -73.260000
523 1 1 0.000000 17.400000 0.000000 -73.260000
524 1 2 0.000000 17.400000 0.418579 -73.260000
525 1 1 0.000000 21.750000 -1.255737 -73.260000
526 1 2 0.000000 21.750000 -0.837158 -73.260000
527 1 1 0.000000 21.750000 0.000000 -73.260000
528 1 2 0.000000 21.750000 0.418579 -73.260000
529 1 1 0.000000 -26.100000 1.255737 -73.260000
530 1 2 0.000000 -26.100000 1.674316 -73.260000
531 1 1 0.000000 -26.100000 2.511474 -73.260000
532 1 2 0.000000 -26.100000 2.930053 -73.260000
533 1 1 0.000000 -21.750000 1.255737 -73.260000
534 1 2 0.000000 -21.750000 1.674316 -73.260000
535 1 1 0.000000 -21.750000 2.511474 -73.260000
536 1 2 0.000000 -21.750000 2.930053 -73.260000
537 1 1 0.000000 -17.400000 1.255737 -73.260000
538 1 2 0.000000 -17.400000 1.674316 -73.260000
539 1 1 0.000000 -17.400000 2.511474 -73.260000
540 1 2 0.000000 -17.400000 2.930053 -73.260000
541 1 1 0.000000 -13.050000 1.255737 -73.260000
542 1 2 0.000000 -13.050000 1.674316 -73.260000
543 1 1 0.000000 -13.050000 2.511474 -73.260000
544 1 2 0.000000 -13.050000 2.930053 -73.260000
545 1 1 0.000000 -8.700000 1.255737 -73.260000
546 1 2 0.000000 -8.700000 1.674316 -73.260000
547 1 1 0.000000 -8.700000 2.511474 -73.260000
548 1 2 0.000000 -8.700000 2.930053 -73.260000
549 1 1 0.000000 -4.350000 1.255737 -73.260000
550 1 2 0.000000 -4.350000 1.674316 -73.260000
551 1 1 0.000000 -4.350000 2.511474 -73.260000
552 1 2 0.000000 -4.350000 2.930053 -73.260000
553 1 1 0.000000 0.000000 1.255737 -73.260000
554 1 2 0.000000 0.000000 1.674316 -73.260000
555 1 1 0.000000 0.000000 2.511474 -73.260000
556 1 2 0.000000 0.000000 2.930053 -73.260000
557 1 1 0.000000 4.350000 1.255737 -73.260000
558 1 2 0.000000 4.350000 1.674316 -73.260000
559 1 1 0.000000 4.350000 2.511474 -73.260000
560 1 2 0.000000 4.350000 2.930053 -73.260000
561 1 1 0.000000 8.700000 1.255737 -73.260000
562 1 2 0.000000 8.700000 1.674316 -73.260000
563 1 1 0.000000 8.700000 2.511474 -73.260000
564 1 2 0.000000 8.700000 2.930053 -73.260000
565 1 1 0.000000 13.050000 1.255737 -73.260000
566 1 2 0.000000 13.050000 1.674316 -73.260000
567 1 1 0.000000 13.050000 2.511474 -73.260000
568 1 2 0.000000 13.050000 2.930053 -73.260000
569 1 1 0.000000 17.400000 1.255737 -73.260000
570 1 2 0.000000 17.400000 1.674316 -73.260000
571 1 1 0.000000 17.400000 2.511474 -73.260000
572 1 2 0.000000 17.400000 2.930053 -73.260000
573 1 1 0.000000 21.750000 1.255737 -73.260000
574 1 2 0.000000 21.750000 1.674316 -73.260000
575 1 1 0.000000 21.750000 2.511474 -73.260000
576 1 2 0.000000 21.750000 2.930053 -73.260000
577 1 1 0.000000 -26.100000 3.767211 -73.260000
578 1 2 0.000000 -26.100000 4.185789 -73.260000
579 1 1 0.000000 -26.100000 5.022947 -73.260000
580 1 2 0.000000 -26.100000 5.441526 -73.260000
581 1 1 0.000000 -21.750000 3.767211 -73.260000
582 1 2 0.000000 -21.750000 4.185789 -73.260000
583 1 1 0.000000 -21.750000 5.022947 -73.260000
584 1 2 0.000000 -21.750000 5.441526 -73.260000
585 1 1 0.000000 -17.400000 3.767211 -73.260000
586 1 2 0.000000 -17.400000 4.185789 -73.260000
587 1 1 0.000000 -17.400000 5.022947 -73.260000
588 1 2 0.000000 -17.400000 5.441526 -73.260000
589 1 1 0.000000 -13.050000 3.767211 -73.260000
590 1 2 0.000000 -13.050000 4.185789 -73.260000
591 1 1 0.000000 -13.050000 5.022947 -73.260000
592 1 2 0.000000 -13.050000 5.441526 -73.260000
593 1 1 0.000000 -8.700000 3.767211 -73.260000
594 1 2 0.000000 -8.700000 4.185789 -73.260000
595 1 1 0.000000 -8.700000 5.022947 -73.260000
596 1 2 0.000000 -8.700000 5.441526 -73.260000
597 1 1 0.000000 -4.350000 3.767211 -73.260000
598 1 2 0.000000 -4.350000 4.185789 -73.260000
599 1 1 0.000000 -4.350000 5.022947 -73.260000
600 1 2 0.000000 -4.350000 5.441526 -73.260000
601 1 1 0.000000 0.000000 3.767211 -73.260000
602 1 2 0.000000 0.000000 4.185789 -73.260000
603 1 1 0.000000 0.000000 5.022947 -73.260000
604 1 2 0.000000 0.000000 5.441526 -73.260000
605 1 1 0.000000 4.350000 3.767211 -73.260000
606 1 2 0.000000 4.350000 4.185789 -73.260000
607 1 1 0.000000 4.350000 5.022947 -73.260000
608 1 2 0.000000 4.350000 5.441526 -73.260000
609 1 1 0.000000 8.700000 3.767211 -73.260000
610 1 2 0.000000 8.700000 4.185789 -73.260000
611 1 1 0.000000 8.700000 5.022947 -73.260000
612 1 2 0.000000 8.700000 5.441526 -73.260000
613 1 1 0.000000 13.050000 3.767211 -73.260000
614 1 2 0.000000 13.050000 4.185789 -73.260000
615 1 1 0.000000 13.050000 5.022947 -73.260000
616 1 2 0.000000 13.050000 5.441526 -73.260000
617 1 1 0.000000 17.400000 3.767211 -73.260000
618 1 2 0.000000 17.400000 4.185789 -73.260000